# vtk DataFile Version 2.0
Data printed from this dope TSALS Program
ASCII
DATASET UNSTRUCTURED_GRID
POINTS 1 FLOAT
0.5 0.5 0.5

POINT_DATA 1
TENSORS PDGradient float
0.0062025 0.0062025 0.0062025
0.0074156 0.0074156 0.0074156
0 0 0 

VECTORS GradientNOI float
-0.19164 -0.19164 -0.19164

