# vtk DataFile Version 2.0
Data printed from this dope TSALS Program
ASCII
DATASET UNSTRUCTURED_GRID
POINTS 132651 FLOAT
0 0 0
0 0 0.02
0 0 0.04
0 0 0.06
0 0 0.08
0 0 0.1
0 0 0.12
0 0 0.14
0 0 0.16
0 0 0.18
0 0 0.2
0 0 0.22
0 0 0.24
0 0 0.26
0 0 0.28
0 0 0.3
0 0 0.32
0 0 0.34
0 0 0.36
0 0 0.38
0 0 0.4
0 0 0.42
0 0 0.44
0 0 0.46
0 0 0.48
0 0 0.5
0 0 0.52
0 0 0.54
0 0 0.56
0 0 0.58
0 0 0.6
0 0 0.62
0 0 0.64
0 0 0.66
0 0 0.68
0 0 0.7
0 0 0.72
0 0 0.74
0 0 0.76
0 0 0.78
0 0 0.8
0 0 0.82
0 0 0.84
0 0 0.86
0 0 0.88
0 0 0.9
0 0 0.92
0 0 0.94
0 0 0.96
0 0 0.98
0 0 1
0 0.02 0
0 0.02 0.02
0 0.02 0.04
0 0.02 0.06
0 0.02 0.08
0 0.02 0.1
0 0.02 0.12
0 0.02 0.14
0 0.02 0.16
0 0.02 0.18
0 0.02 0.2
0 0.02 0.22
0 0.02 0.24
0 0.02 0.26
0 0.02 0.28
0 0.02 0.3
0 0.02 0.32
0 0.02 0.34
0 0.02 0.36
0 0.02 0.38
0 0.02 0.4
0 0.02 0.42
0 0.02 0.44
0 0.02 0.46
0 0.02 0.48
0 0.02 0.5
0 0.02 0.52
0 0.02 0.54
0 0.02 0.56
0 0.02 0.58
0 0.02 0.6
0 0.02 0.62
0 0.02 0.64
0 0.02 0.66
0 0.02 0.68
0 0.02 0.7
0 0.02 0.72
0 0.02 0.74
0 0.02 0.76
0 0.02 0.78
0 0.02 0.8
0 0.02 0.82
0 0.02 0.84
0 0.02 0.86
0 0.02 0.88
0 0.02 0.9
0 0.02 0.92
0 0.02 0.94
0 0.02 0.96
0 0.02 0.98
0 0.02 1
0 0.04 0
0 0.04 0.02
0 0.04 0.04
0 0.04 0.06
0 0.04 0.08
0 0.04 0.1
0 0.04 0.12
0 0.04 0.14
0 0.04 0.16
0 0.04 0.18
0 0.04 0.2
0 0.04 0.22
0 0.04 0.24
0 0.04 0.26
0 0.04 0.28
0 0.04 0.3
0 0.04 0.32
0 0.04 0.34
0 0.04 0.36
0 0.04 0.38
0 0.04 0.4
0 0.04 0.42
0 0.04 0.44
0 0.04 0.46
0 0.04 0.48
0 0.04 0.5
0 0.04 0.52
0 0.04 0.54
0 0.04 0.56
0 0.04 0.58
0 0.04 0.6
0 0.04 0.62
0 0.04 0.64
0 0.04 0.66
0 0.04 0.68
0 0.04 0.7
0 0.04 0.72
0 0.04 0.74
0 0.04 0.76
0 0.04 0.78
0 0.04 0.8
0 0.04 0.82
0 0.04 0.84
0 0.04 0.86
0 0.04 0.88
0 0.04 0.9
0 0.04 0.92
0 0.04 0.94
0 0.04 0.96
0 0.04 0.98
0 0.04 1
0 0.06 0
0 0.06 0.02
0 0.06 0.04
0 0.06 0.06
0 0.06 0.08
0 0.06 0.1
0 0.06 0.12
0 0.06 0.14
0 0.06 0.16
0 0.06 0.18
0 0.06 0.2
0 0.06 0.22
0 0.06 0.24
0 0.06 0.26
0 0.06 0.28
0 0.06 0.3
0 0.06 0.32
0 0.06 0.34
0 0.06 0.36
0 0.06 0.38
0 0.06 0.4
0 0.06 0.42
0 0.06 0.44
0 0.06 0.46
0 0.06 0.48
0 0.06 0.5
0 0.06 0.52
0 0.06 0.54
0 0.06 0.56
0 0.06 0.58
0 0.06 0.6
0 0.06 0.62
0 0.06 0.64
0 0.06 0.66
0 0.06 0.68
0 0.06 0.7
0 0.06 0.72
0 0.06 0.74
0 0.06 0.76
0 0.06 0.78
0 0.06 0.8
0 0.06 0.82
0 0.06 0.84
0 0.06 0.86
0 0.06 0.88
0 0.06 0.9
0 0.06 0.92
0 0.06 0.94
0 0.06 0.96
0 0.06 0.98
0 0.06 1
0 0.08 0
0 0.08 0.02
0 0.08 0.04
0 0.08 0.06
0 0.08 0.08
0 0.08 0.1
0 0.08 0.12
0 0.08 0.14
0 0.08 0.16
0 0.08 0.18
0 0.08 0.2
0 0.08 0.22
0 0.08 0.24
0 0.08 0.26
0 0.08 0.28
0 0.08 0.3
0 0.08 0.32
0 0.08 0.34
0 0.08 0.36
0 0.08 0.38
0 0.08 0.4
0 0.08 0.42
0 0.08 0.44
0 0.08 0.46
0 0.08 0.48
0 0.08 0.5
0 0.08 0.52
0 0.08 0.54
0 0.08 0.56
0 0.08 0.58
0 0.08 0.6
0 0.08 0.62
0 0.08 0.64
0 0.08 0.66
0 0.08 0.68
0 0.08 0.7
0 0.08 0.72
0 0.08 0.74
0 0.08 0.76
0 0.08 0.78
0 0.08 0.8
0 0.08 0.82
0 0.08 0.84
0 0.08 0.86
0 0.08 0.88
0 0.08 0.9
0 0.08 0.92
0 0.08 0.94
0 0.08 0.96
0 0.08 0.98
0 0.08 1
0 0.1 0
0 0.1 0.02
0 0.1 0.04
0 0.1 0.06
0 0.1 0.08
0 0.1 0.1
0 0.1 0.12
0 0.1 0.14
0 0.1 0.16
0 0.1 0.18
0 0.1 0.2
0 0.1 0.22
0 0.1 0.24
0 0.1 0.26
0 0.1 0.28
0 0.1 0.3
0 0.1 0.32
0 0.1 0.34
0 0.1 0.36
0 0.1 0.38
0 0.1 0.4
0 0.1 0.42
0 0.1 0.44
0 0.1 0.46
0 0.1 0.48
0 0.1 0.5
0 0.1 0.52
0 0.1 0.54
0 0.1 0.56
0 0.1 0.58
0 0.1 0.6
0 0.1 0.62
0 0.1 0.64
0 0.1 0.66
0 0.1 0.68
0 0.1 0.7
0 0.1 0.72
0 0.1 0.74
0 0.1 0.76
0 0.1 0.78
0 0.1 0.8
0 0.1 0.82
0 0.1 0.84
0 0.1 0.86
0 0.1 0.88
0 0.1 0.9
0 0.1 0.92
0 0.1 0.94
0 0.1 0.96
0 0.1 0.98
0 0.1 1
0 0.12 0
0 0.12 0.02
0 0.12 0.04
0 0.12 0.06
0 0.12 0.08
0 0.12 0.1
0 0.12 0.12
0 0.12 0.14
0 0.12 0.16
0 0.12 0.18
0 0.12 0.2
0 0.12 0.22
0 0.12 0.24
0 0.12 0.26
0 0.12 0.28
0 0.12 0.3
0 0.12 0.32
0 0.12 0.34
0 0.12 0.36
0 0.12 0.38
0 0.12 0.4
0 0.12 0.42
0 0.12 0.44
0 0.12 0.46
0 0.12 0.48
0 0.12 0.5
0 0.12 0.52
0 0.12 0.54
0 0.12 0.56
0 0.12 0.58
0 0.12 0.6
0 0.12 0.62
0 0.12 0.64
0 0.12 0.66
0 0.12 0.68
0 0.12 0.7
0 0.12 0.72
0 0.12 0.74
0 0.12 0.76
0 0.12 0.78
0 0.12 0.8
0 0.12 0.82
0 0.12 0.84
0 0.12 0.86
0 0.12 0.88
0 0.12 0.9
0 0.12 0.92
0 0.12 0.94
0 0.12 0.96
0 0.12 0.98
0 0.12 1
0 0.14 0
0 0.14 0.02
0 0.14 0.04
0 0.14 0.06
0 0.14 0.08
0 0.14 0.1
0 0.14 0.12
0 0.14 0.14
0 0.14 0.16
0 0.14 0.18
0 0.14 0.2
0 0.14 0.22
0 0.14 0.24
0 0.14 0.26
0 0.14 0.28
0 0.14 0.3
0 0.14 0.32
0 0.14 0.34
0 0.14 0.36
0 0.14 0.38
0 0.14 0.4
0 0.14 0.42
0 0.14 0.44
0 0.14 0.46
0 0.14 0.48
0 0.14 0.5
0 0.14 0.52
0 0.14 0.54
0 0.14 0.56
0 0.14 0.58
0 0.14 0.6
0 0.14 0.62
0 0.14 0.64
0 0.14 0.66
0 0.14 0.68
0 0.14 0.7
0 0.14 0.72
0 0.14 0.74
0 0.14 0.76
0 0.14 0.78
0 0.14 0.8
0 0.14 0.82
0 0.14 0.84
0 0.14 0.86
0 0.14 0.88
0 0.14 0.9
0 0.14 0.92
0 0.14 0.94
0 0.14 0.96
0 0.14 0.98
0 0.14 1
0 0.16 0
0 0.16 0.02
0 0.16 0.04
0 0.16 0.06
0 0.16 0.08
0 0.16 0.1
0 0.16 0.12
0 0.16 0.14
0 0.16 0.16
0 0.16 0.18
0 0.16 0.2
0 0.16 0.22
0 0.16 0.24
0 0.16 0.26
0 0.16 0.28
0 0.16 0.3
0 0.16 0.32
0 0.16 0.34
0 0.16 0.36
0 0.16 0.38
0 0.16 0.4
0 0.16 0.42
0 0.16 0.44
0 0.16 0.46
0 0.16 0.48
0 0.16 0.5
0 0.16 0.52
0 0.16 0.54
0 0.16 0.56
0 0.16 0.58
0 0.16 0.6
0 0.16 0.62
0 0.16 0.64
0 0.16 0.66
0 0.16 0.68
0 0.16 0.7
0 0.16 0.72
0 0.16 0.74
0 0.16 0.76
0 0.16 0.78
0 0.16 0.8
0 0.16 0.82
0 0.16 0.84
0 0.16 0.86
0 0.16 0.88
0 0.16 0.9
0 0.16 0.92
0 0.16 0.94
0 0.16 0.96
0 0.16 0.98
0 0.16 1
0 0.18 0
0 0.18 0.02
0 0.18 0.04
0 0.18 0.06
0 0.18 0.08
0 0.18 0.1
0 0.18 0.12
0 0.18 0.14
0 0.18 0.16
0 0.18 0.18
0 0.18 0.2
0 0.18 0.22
0 0.18 0.24
0 0.18 0.26
0 0.18 0.28
0 0.18 0.3
0 0.18 0.32
0 0.18 0.34
0 0.18 0.36
0 0.18 0.38
0 0.18 0.4
0 0.18 0.42
0 0.18 0.44
0 0.18 0.46
0 0.18 0.48
0 0.18 0.5
0 0.18 0.52
0 0.18 0.54
0 0.18 0.56
0 0.18 0.58
0 0.18 0.6
0 0.18 0.62
0 0.18 0.64
0 0.18 0.66
0 0.18 0.68
0 0.18 0.7
0 0.18 0.72
0 0.18 0.74
0 0.18 0.76
0 0.18 0.78
0 0.18 0.8
0 0.18 0.82
0 0.18 0.84
0 0.18 0.86
0 0.18 0.88
0 0.18 0.9
0 0.18 0.92
0 0.18 0.94
0 0.18 0.96
0 0.18 0.98
0 0.18 1
0 0.2 0
0 0.2 0.02
0 0.2 0.04
0 0.2 0.06
0 0.2 0.08
0 0.2 0.1
0 0.2 0.12
0 0.2 0.14
0 0.2 0.16
0 0.2 0.18
0 0.2 0.2
0 0.2 0.22
0 0.2 0.24
0 0.2 0.26
0 0.2 0.28
0 0.2 0.3
0 0.2 0.32
0 0.2 0.34
0 0.2 0.36
0 0.2 0.38
0 0.2 0.4
0 0.2 0.42
0 0.2 0.44
0 0.2 0.46
0 0.2 0.48
0 0.2 0.5
0 0.2 0.52
0 0.2 0.54
0 0.2 0.56
0 0.2 0.58
0 0.2 0.6
0 0.2 0.62
0 0.2 0.64
0 0.2 0.66
0 0.2 0.68
0 0.2 0.7
0 0.2 0.72
0 0.2 0.74
0 0.2 0.76
0 0.2 0.78
0 0.2 0.8
0 0.2 0.82
0 0.2 0.84
0 0.2 0.86
0 0.2 0.88
0 0.2 0.9
0 0.2 0.92
0 0.2 0.94
0 0.2 0.96
0 0.2 0.98
0 0.2 1
0 0.22 0
0 0.22 0.02
0 0.22 0.04
0 0.22 0.06
0 0.22 0.08
0 0.22 0.1
0 0.22 0.12
0 0.22 0.14
0 0.22 0.16
0 0.22 0.18
0 0.22 0.2
0 0.22 0.22
0 0.22 0.24
0 0.22 0.26
0 0.22 0.28
0 0.22 0.3
0 0.22 0.32
0 0.22 0.34
0 0.22 0.36
0 0.22 0.38
0 0.22 0.4
0 0.22 0.42
0 0.22 0.44
0 0.22 0.46
0 0.22 0.48
0 0.22 0.5
0 0.22 0.52
0 0.22 0.54
0 0.22 0.56
0 0.22 0.58
0 0.22 0.6
0 0.22 0.62
0 0.22 0.64
0 0.22 0.66
0 0.22 0.68
0 0.22 0.7
0 0.22 0.72
0 0.22 0.74
0 0.22 0.76
0 0.22 0.78
0 0.22 0.8
0 0.22 0.82
0 0.22 0.84
0 0.22 0.86
0 0.22 0.88
0 0.22 0.9
0 0.22 0.92
0 0.22 0.94
0 0.22 0.96
0 0.22 0.98
0 0.22 1
0 0.24 0
0 0.24 0.02
0 0.24 0.04
0 0.24 0.06
0 0.24 0.08
0 0.24 0.1
0 0.24 0.12
0 0.24 0.14
0 0.24 0.16
0 0.24 0.18
0 0.24 0.2
0 0.24 0.22
0 0.24 0.24
0 0.24 0.26
0 0.24 0.28
0 0.24 0.3
0 0.24 0.32
0 0.24 0.34
0 0.24 0.36
0 0.24 0.38
0 0.24 0.4
0 0.24 0.42
0 0.24 0.44
0 0.24 0.46
0 0.24 0.48
0 0.24 0.5
0 0.24 0.52
0 0.24 0.54
0 0.24 0.56
0 0.24 0.58
0 0.24 0.6
0 0.24 0.62
0 0.24 0.64
0 0.24 0.66
0 0.24 0.68
0 0.24 0.7
0 0.24 0.72
0 0.24 0.74
0 0.24 0.76
0 0.24 0.78
0 0.24 0.8
0 0.24 0.82
0 0.24 0.84
0 0.24 0.86
0 0.24 0.88
0 0.24 0.9
0 0.24 0.92
0 0.24 0.94
0 0.24 0.96
0 0.24 0.98
0 0.24 1
0 0.26 0
0 0.26 0.02
0 0.26 0.04
0 0.26 0.06
0 0.26 0.08
0 0.26 0.1
0 0.26 0.12
0 0.26 0.14
0 0.26 0.16
0 0.26 0.18
0 0.26 0.2
0 0.26 0.22
0 0.26 0.24
0 0.26 0.26
0 0.26 0.28
0 0.26 0.3
0 0.26 0.32
0 0.26 0.34
0 0.26 0.36
0 0.26 0.38
0 0.26 0.4
0 0.26 0.42
0 0.26 0.44
0 0.26 0.46
0 0.26 0.48
0 0.26 0.5
0 0.26 0.52
0 0.26 0.54
0 0.26 0.56
0 0.26 0.58
0 0.26 0.6
0 0.26 0.62
0 0.26 0.64
0 0.26 0.66
0 0.26 0.68
0 0.26 0.7
0 0.26 0.72
0 0.26 0.74
0 0.26 0.76
0 0.26 0.78
0 0.26 0.8
0 0.26 0.82
0 0.26 0.84
0 0.26 0.86
0 0.26 0.88
0 0.26 0.9
0 0.26 0.92
0 0.26 0.94
0 0.26 0.96
0 0.26 0.98
0 0.26 1
0 0.28 0
0 0.28 0.02
0 0.28 0.04
0 0.28 0.06
0 0.28 0.08
0 0.28 0.1
0 0.28 0.12
0 0.28 0.14
0 0.28 0.16
0 0.28 0.18
0 0.28 0.2
0 0.28 0.22
0 0.28 0.24
0 0.28 0.26
0 0.28 0.28
0 0.28 0.3
0 0.28 0.32
0 0.28 0.34
0 0.28 0.36
0 0.28 0.38
0 0.28 0.4
0 0.28 0.42
0 0.28 0.44
0 0.28 0.46
0 0.28 0.48
0 0.28 0.5
0 0.28 0.52
0 0.28 0.54
0 0.28 0.56
0 0.28 0.58
0 0.28 0.6
0 0.28 0.62
0 0.28 0.64
0 0.28 0.66
0 0.28 0.68
0 0.28 0.7
0 0.28 0.72
0 0.28 0.74
0 0.28 0.76
0 0.28 0.78
0 0.28 0.8
0 0.28 0.82
0 0.28 0.84
0 0.28 0.86
0 0.28 0.88
0 0.28 0.9
0 0.28 0.92
0 0.28 0.94
0 0.28 0.96
0 0.28 0.98
0 0.28 1
0 0.3 0
0 0.3 0.02
0 0.3 0.04
0 0.3 0.06
0 0.3 0.08
0 0.3 0.1
0 0.3 0.12
0 0.3 0.14
0 0.3 0.16
0 0.3 0.18
0 0.3 0.2
0 0.3 0.22
0 0.3 0.24
0 0.3 0.26
0 0.3 0.28
0 0.3 0.3
0 0.3 0.32
0 0.3 0.34
0 0.3 0.36
0 0.3 0.38
0 0.3 0.4
0 0.3 0.42
0 0.3 0.44
0 0.3 0.46
0 0.3 0.48
0 0.3 0.5
0 0.3 0.52
0 0.3 0.54
0 0.3 0.56
0 0.3 0.58
0 0.3 0.6
0 0.3 0.62
0 0.3 0.64
0 0.3 0.66
0 0.3 0.68
0 0.3 0.7
0 0.3 0.72
0 0.3 0.74
0 0.3 0.76
0 0.3 0.78
0 0.3 0.8
0 0.3 0.82
0 0.3 0.84
0 0.3 0.86
0 0.3 0.88
0 0.3 0.9
0 0.3 0.92
0 0.3 0.94
0 0.3 0.96
0 0.3 0.98
0 0.3 1
0 0.32 0
0 0.32 0.02
0 0.32 0.04
0 0.32 0.06
0 0.32 0.08
0 0.32 0.1
0 0.32 0.12
0 0.32 0.14
0 0.32 0.16
0 0.32 0.18
0 0.32 0.2
0 0.32 0.22
0 0.32 0.24
0 0.32 0.26
0 0.32 0.28
0 0.32 0.3
0 0.32 0.32
0 0.32 0.34
0 0.32 0.36
0 0.32 0.38
0 0.32 0.4
0 0.32 0.42
0 0.32 0.44
0 0.32 0.46
0 0.32 0.48
0 0.32 0.5
0 0.32 0.52
0 0.32 0.54
0 0.32 0.56
0 0.32 0.58
0 0.32 0.6
0 0.32 0.62
0 0.32 0.64
0 0.32 0.66
0 0.32 0.68
0 0.32 0.7
0 0.32 0.72
0 0.32 0.74
0 0.32 0.76
0 0.32 0.78
0 0.32 0.8
0 0.32 0.82
0 0.32 0.84
0 0.32 0.86
0 0.32 0.88
0 0.32 0.9
0 0.32 0.92
0 0.32 0.94
0 0.32 0.96
0 0.32 0.98
0 0.32 1
0 0.34 0
0 0.34 0.02
0 0.34 0.04
[...]
POINT_DATA 132651
VECTORS PDVector float
10 0
0.997320.01 0
0.994640.02 0
0.991960.03 0
0.989280.04 0
0.98660.05 0
0.983920.06 0
0.981240.07 0
0.978560.08 0
0.975880.09 0
0.973210.1 0
0.970530.11 0
0.967850.12 0
0.965170.13 0
0.962490.14 0
0.959810.15 0
0.957130.16 0
0.954450.17 0
0.951770.18 0
0.949090.19 0
0.946410.2 0
0.943730.21 0
0.941050.22 0
0.938370.23 0
0.935690.24 0
0.933010.25 0
0.930330.26 0
0.927650.27 0
0.924970.28 0
0.922290.29 0
0.919620.3 0
0.916940.31 0
0.914260.32 0
0.911580.33 0
0.90890.34 0
0.906220.35 0
0.903540.36 0
0.900860.37 0
0.898180.38 0
0.89550.39 0
0.892820.4 0
0.890140.41 0
0.887460.42 0
0.884780.43 0
0.88210.44 0
0.879420.45 0
0.876740.46 0
0.874060.47 0
0.871380.48 0
0.86870.49 0
0.866030.5 0
0.997320.01 0
0.994550.019946 0
0.991780.029893 0
0.9890.039839 0
0.986230.049786 0
0.983460.059732 0
0.980690.069678 0
0.977910.079625 0
0.975140.089571 0
0.972370.099518 0
0.96960.10946 0
0.966830.11941 0
0.964050.12936 0
0.961280.1393 0
0.958510.14925 0
0.955740.1592 0
0.952960.16914 0
0.950190.17909 0
0.947420.18904 0
0.944650.19898 0
0.941870.20893 0
0.93910.21887 0
0.936330.22882 0
0.933560.23877 0
0.930790.24871 0
0.928010.25866 0
0.925240.26861 0
0.922470.27855 0
0.91970.2885 0
0.916920.29845 0
0.914150.30839 0
0.911380.31834 0
0.908610.32829 0
0.905830.33823 0
0.903060.34818 0
0.900290.35812 0
0.897520.36807 0
0.894740.37802 0
0.891970.38796 0
0.88920.39791 0
0.886430.40786 0
0.883660.4178 0
0.880880.42775 0
0.878110.4377 0
0.875340.44764 0
0.872570.45759 0
0.869790.46753 0
0.867020.47748 0
0.864250.48743 0
0.861480.49737 0
0.85870.50732 0
0.994640.02 0
0.991780.029893 0
0.988910.039786 0
0.986050.049678 0
0.983180.059571 0
0.980320.069464 0
0.977450.079357 0
0.974590.08925 0
0.971720.099143 0
0.968850.10904 0
0.965990.11893 0
0.963120.12882 0
0.960260.13871 0
0.957390.14861 0
0.954530.1585 0
0.951660.16839 0
0.94880.17829 0
0.945930.18818 0
0.943070.19807 0
0.94020.20796 0
0.937340.21786 0
0.934470.22775 0
0.931610.23764 0
0.928740.24753 0
0.925880.25743 0
0.923010.26732 0
0.920150.27721 0
0.917280.28711 0
0.914420.297 0
0.911550.30689 0
0.908690.31678 0
0.905820.32668 0
0.902960.33657 0
0.900090.34646 0
0.897230.35636 0
0.894360.36625 0
0.89150.37614 0
0.888630.38603 0
0.885770.39593 0
0.88290.40582 0
0.880040.41571 0
0.877170.42561 0
0.874310.4355 0
0.871440.44539 0
0.868580.45528 0
0.865710.46518 0
0.862840.47507 0
0.859980.48496 0
0.857110.49486 0
0.854250.50475 0
0.851380.51464 0
0.991960.03 0
0.9890.039839 0
0.986050.049678 0
0.983090.059518 0
0.980130.069357 0
0.977170.079196 0
0.974210.089035 0
0.971260.098875 0
0.96830.10871 0
0.965340.11855 0
0.962380.12839 0
0.959420.13823 0
0.956470.14807 0
0.953510.15791 0
0.950550.16775 0
0.947590.17759 0
0.944630.18743 0
0.941680.19727 0
0.938720.20711 0
0.935760.21695 0
0.93280.22678 0
0.929840.23662 0
0.926890.24646 0
0.923930.2563 0
0.920970.26614 0
0.918010.27598 0
0.915050.28582 0
0.91210.29566 0
0.909140.3055 0
0.906180.31534 0
0.903220.32518 0
0.900260.33502 0
0.897310.34486 0
0.894350.35469 0
0.891390.36453 0
0.888430.37437 0
0.885480.38421 0
0.882520.39405 0
0.879560.40389 0
0.87660.41373 0
0.873640.42357 0
0.870690.43341 0
0.867730.44325 0
0.864770.45309 0
0.861810.46293 0
0.858850.47277 0
0.85590.4826 0
0.852940.49244 0
0.849980.50228 0
0.847020.51212 0
0.844060.52196 0
0.989280.04 0
0.986230.049786 0
0.983180.059571 0
0.980130.069357 0
0.977080.079143 0
0.974030.088928 0
0.970980.098714 0
0.967930.1085 0
0.964880.11829 0
0.961830.12807 0
0.958770.13786 0
0.955720.14764 0
0.952670.15743 0
0.949620.16721 0
0.946570.177 0
0.943520.18678 0
0.940470.19657 0
0.937420.20636 0
0.934370.21614 0
0.931320.22593 0
0.928270.23571 0
0.925220.2455 0
0.922170.25528 0
0.919110.26507 0
0.916060.27486 0
0.913010.28464 0
0.909960.29443 0
0.906910.30421 0
0.903860.314 0
0.900810.32378 0
0.897760.33357 0
0.894710.34335 0
0.891660.35314 0
0.888610.36293 0
0.885560.37271 0
0.88250.3825 0
0.879450.39228 0
0.87640.40207 0
0.873350.41185 0
0.87030.42164 0
0.867250.43143 0
0.86420.44121 0
0.861150.451 0
0.85810.46078 0
0.855050.47057 0
0.8520.48035 0
0.848950.49014 0
0.84590.49993 0
0.842840.50971 0
0.839790.5195 0
0.836740.52928 0
0.98660.05 0
0.983460.059732 0
0.980320.069464 0
0.977170.079196 0
0.974030.088928 0
0.970880.09866 0
0.967740.10839 0
0.96460.11812 0
0.961450.12786 0
0.958310.13759 0
0.955170.14732 0
0.952020.15705 0
0.948880.16678 0
0.945740.17652 0
0.942590.18625 0
0.939450.19598 0
0.936310.20571 0
0.933160.21544 0
0.930020.22518 0
0.926870.23491 0
0.923730.24464 0
0.920590.25437 0
0.917440.26411 0
0.91430.27384 0
0.911160.28357 0
0.908010.2933 0
0.904870.30303 0
0.901730.31277 0
0.898580.3225 0
0.895440.33223 0
0.892290.34196 0
0.889150.35169 0
0.886010.36143 0
0.882860.37116 0
0.879720.38089 0
0.876580.39062 0
0.873430.40035 0
0.870290.41009 0
0.867150.41982 0
0.8640.42955 0
0.860860.43928 0
0.857720.44901 0
0.854570.45875 0
0.851430.46848 0
0.848280.47821 0
0.845140.48794 0
0.8420.49767 0
0.838850.50741 0
0.835710.51714 0
0.832570.52687 0
0.829420.5366 0
0.983920.06 0
0.980690.069678 0
0.977450.079357 0
0.974210.089035 0
0.970980.098714 0
0.967740.10839 0
0.96450.11807 0
0.961270.12775 0
0.958030.13743 0
0.95480.14711 0
0.951560.15678 0
0.948320.16646 0
0.945090.17614 0
0.941850.18582 0
0.938610.1955 0
0.935380.20518 0
0.932140.21486 0
0.92890.22453 0
0.925670.23421 0
0.922430.24389 0
0.919190.25357 0
0.915960.26325 0
0.912720.27293 0
0.909490.2826 0
0.906250.29228 0
0.903010.30196 0
0.899780.31164 0
0.896540.32132 0
0.89330.331 0
0.890070.34068 0
0.886830.35035 0
0.883590.36003 0
0.880360.36971 0
0.877120.37939 0
0.873880.38907 0
0.870650.39875 0
0.867410.40842 0
0.864180.4181 0
0.860940.42778 0
0.85770.43746 0
0.854470.44714 0
0.851230.45682 0
0.847990.4665 0
0.844760.47617 0
0.841520.48585 0
0.838280.49553 0
0.835050.50521 0
0.831810.51489 0
0.828580.52457 0
0.825340.53424 0
0.82210.54392 0
0.981240.07 0
0.977910.079625 0
0.974590.08925 0
0.971260.098875 0
0.967930.1085 0
0.96460.11812 0
0.961270.12775 0
0.957940.13737 0
0.954610.147 0
0.951280.15662 0
0.947950.16625 0
0.944620.17587 0
0.941290.1855 0
0.937960.19512 0
0.934630.20475 0
0.931310.21437 0
0.927980.224 0
0.924650.23362 0
0.921320.24325 0
0.917990.25287 0
0.914660.2625 0
0.911330.27212 0
0.9080.28175 0
0.904670.29137 0
0.901340.301 0
0.898010.31062 0
0.894680.32025 0
0.891350.32987 0
0.888020.3395 0
0.88470.34912 0
0.881370.35875 0
0.878040.36837 0
0.874710.378 0
0.871380.38762 0
0.868050.39725 0
0.864720.40687 0
0.861390.4165 0
0.858060.42612 0
0.854730.43575 0
0.85140.44537 0
0.848070.45499 0
0.844740.46462 0
0.841420.47424 0
0.838090.48387 0
0.834760.49349 0
0.831430.50312 0
0.82810.51274 0
0.824770.52237 0
0.821440.53199 0
0.818110.54162 0
0.814780.55124 0
0.978560.08 0
0.975140.089571 0
0.971720.099143 0
0.96830.10871 0
0.964880.11829 0
0.961450.12786 0
0.958030.13743 0
0.954610.147 0
0.951190.15657 0
0.947770.16614 0
0.944340.17571 0
0.940920.18528 0
0.93750.19486 0
0.934080.20443 0
0.930660.214 0
0.927230.22357 0
0.923810.23314 0
0.920390.24271 0
0.916970.25228 0
0.913550.26185 0
0.910120.27143 0
0.90670.281 0
0.903280.29057 0
0.899860.30014 0
0.896430.30971 0
0.893010.31928 0
0.889590.32885 0
0.886170.33842 0
0.882750.348 0
0.879320.35757 0
0.87590.36714 0
0.872480.37671 0
0.869060.38628 0
0.865640.39585 0
0.862210.40542 0
0.858790.41499 0
0.855370.42457 0
0.851950.43414 0
0.848530.44371 0
0.84510.45328 0
0.841680.46285 0
0.838260.47242 0
0.834840.48199 0
0.831420.49157 0
0.827990.50114 0
0.824570.51071 0
0.821150.52028 0
0.817730.52985 0
0.814310.53942 0
0.810880.54899 0
0.807460.55856 0
0.975880.09 0
0.972370.099518 0
0.968850.10904 0
0.965340.11855 0
0.961830.12807 0
0.958310.13759 0
0.95480.14711 0
0.951280.15662 0
0.947770.16614 0
0.944250.17566 0
0.940740.18518 0
0.937220.19469 0
0.933710.20421 0
0.930190.21373 0
0.926680.22325 0
0.923160.23277 0
0.919650.24228 0
0.916130.2518 0
0.912620.26132 0
0.90910.27084 0
0.905590.28035 0
0.902070.28987 0
0.898560.29939 0
0.895040.30891 0
0.891530.31842 0
0.888010.32794 0
0.88450.33746 0
0.880980.34698 0
0.877470.3565 0
0.873950.36601 0
0.870440.37553 0
0.866920.38505 0
0.863410.39457 0
0.859890.40408 0
0.856380.4136 0
0.852860.42312 0
0.849350.43264 0
0.845830.44215 0
0.842320.45167 0
0.83880.46119 0
0.835290.47071 0
0.831770.48023 0
0.828260.48974 0
0.824740.49926 0
0.821230.50878 0
0.817720.5183 0
0.81420.52781 0
0.810690.53733 0
0.807170.54685 0
0.803660.55637 0
0.800140.56588 0
0.973210.1 0
0.96960.10946 0
0.965990.11893 0
0.962380.12839 0
0.958770.13786 0
0.955170.14732 0
0.951560.15678 0
0.947950.16625 0
0.944340.17571 0
0.940740.18518 0
0.937130.19464 0
0.933520.20411 0
0.929910.21357 0
0.926310.22303 0
0.92270.2325 0
0.919090.24196 0
0.915480.25143 0
0.911870.26089 0
0.908270.27035 0
0.904660.27982 0
0.901050.28928 0
0.897440.29875 0
0.893840.30821 0
0.890230.31767 0
0.886620.32714 0
0.883010.3366 0
0.879410.34607 0
0.87580.35553 0
0.872190.36499 0
0.868580.37446 0
0.864970.38392 0
0.861370.39339 0
0.857760.40285 0
0.854150.41232 0
0.850540.42178 0
0.846940.43124 0
0.843330.44071 0
0.839720.45017 0
0.836110.45964 0
0.83250.4691 0
0.82890.47856 0
0.825290.48803 0
0.821680.49749 0
0.818070.50696 0
0.814470.51642 0
0.810860.52588 0
0.807250.53535 0
0.803640.54481 0
0.800040.55428 0
0.796430.56374 0
0.792820.57321 0
0.970530.11 0
0.966830.11941 0
0.963120.12882 0
0.959420.13823 0
0.955720.14764 0
0.952020.15705 0
0.948320.16646 0
0.944620.17587 0
0.940920.18528 0
0.937220.19469 0
0.933520.20411 0
0.929820.21352 0
0.926120.22293 0
0.922420.23234 0
0.918720.24175 0
0.915020.25116 0
0.911320.26057 0
0.907620.26998 0
0.903920.27939 0
0.900220.2888 0
0.896520.29821 0
0.892810.30762 0
0.889110.31703 0
0.885410.32644 0
0.881710.33585 0
0.878010.34526 0
0.874310.35467 0
0.870610.36408 0
0.866910.37349 0
0.863210.3829 0
0.859510.39232 0
0.855810.40173 0
0.852110.41114 0
0.848410.42055 0
0.844710.42996 0
0.841010.43937 0
0.837310.44878 0
0.833610.45819 0
0.829910.4676 0
0.826210.47701 0
0.82250.48642 0
0.81880.49583 0
0.81510.50524 0
0.81140.51465 0
0.80770.52406 0
0.8040.53347 0
0.80030.54288 0
0.79660.55229 0
0.79290.5617 0
0.78920.57112 0
0.78550.58053 0
0.967850.12 0
0.964050.12936 0
0.960260.13871 0
0.956470.14807 0
0.952670.15743 0
0.948880.16678 0
0.945090.17614 0
0.941290.1855 0
0.93750.19486 0
0.933710.20421 0
0.929910.21357 0
0.926120.22293 0
0.922330.23228 0
0.918530.24164 0
0.914740.251 0
0.910950.26035 0
0.907150.26971 0
0.903360.27907 0
0.899570.28842 0
0.895770.29778 0
0.891980.30714 0
0.888190.3165 0
0.884390.32585 0
0.88060.33521 0
0.876810.34457 0
0.873010.35392 0
0.869220.36328 0
0.865430.37264 0
0.861630.38199 0
0.857840.39135 0
0.854050.40071 0
0.850250.41006 0
0.846460.41942 0
0.842670.42878 0
0.838870.43814 0
0.835080.44749 0
0.831290.45685 0
0.827490.46621 0
0.82370.47556 0
0.819910.48492 0
0.816110.49428 0
0.812320.50363 0
0.808530.51299 0
0.804730.52235 0
0.800940.5317 0
0.797150.54106 0
0.793350.55042 0
0.789560.55978 0
0.785770.56913 0
0.781970.57849 0
0.778180.58785 0
0.965170.13 0
0.961280.1393 0
0.957390.14861 0
0.953510.15791 0
0.949620.16721 0
0.945740.17652 0
0.941850.18582 0
0.937960.19512 0
0.934080.20443 0
0.930190.21373 0
0.926310.22303 0
0.922420.23234 0
0.918530.24164 0
0.914650.25094 0
0.910760.26025 0
0.906870.26955 0
0.902990.27885 0
0.89910.28816 0
0.895220.29746 0
0.891330.30676 0
0.887440.31607 0
0.883560.32537 0
0.879670.33467 0
0.875790.34398 0
0.87190.35328 0
0.868010.36258 0
0.864130.37189 0
0.860240.38119 0
0.856350.39049 0
0.852470.3998 0
0.848580.4091 0
0.84470.4184 0
0.840810.42771 0
0.836920.43701 0
0.833040.44631 0
0.829150.45562 0
0.825260.46492 0
0.821380.47422 0
0.817490.48353 0
0.813610.49283 0
0.809720.50213 0
0.805830.51144 0
0.801950.52074 0
0.798060.53004 0
0.794180.53935 0
0.790290.54865 0
0.78640.55795 0
0.782520.56726 0
0.778630.57656 0
0.774740.58586 0
0.770860.59517 0
0.962490.14 0
0.958510.14925 0
0.954530.1585 0
0.950550.16775 0
0.946570.177 0
0.942590.18625 0
0.938610.1955 0
0.934630.20475 0
0.930660.214 0
0.926680.22325 0
0.92270.2325 0
0.918720.24175 0
0.914740.251 0
0.910760.26025 0
0.906780.2695 0
0.90280.27875 0
0.898820.288 0
0.894840.29725 0
0.890870.3065 0
0.886890.31575 0
0.882910.32499 0
0.878930.33424 0
0.874950.34349 0
0.870970.35274 0
0.866990.36199 0
0.863010.37124 0
0.859030.38049 0
0.855050.38974 0
0.851080.39899 0
0.84710.40824 0
0.843120.41749 0
0.839140.42674 0
0.835160.43599 0
0.831180.44524 0
0.82720.45449 0
0.823220.46374 0
0.819240.47299 0
0.815260.48224 0
0.811290.49149 0
0.807310.50074 0
0.803330.50999 0
0.799350.51924 0
0.795370.52849 0
0.791390.53774 0
0.787410.54699 0
0.783430.55624 0
0.779450.56549 0
0.775480.57474 0
0.77150.58399 0
0.767520.59324 0
0.763540.60249 0
0.959810.15 0
0.955740.1592 0
0.951660.16839 0
0.947590.17759 0
0.943520.18678 0
0.939450.19598 0
0.935380.20518 0
0.931310.21437 0
0.927230.22357 0
0.923160.23277 0
0.919090.24196 0
0.915020.25116 0
0.910950.26035 0
0.906870.26955 0
0.90280.27875 0
0.898730.28794 0
0.894660.29714 0
0.890590.30633 0
0.886520.31553 0
0.882440.32473 0
0.878370.33392 0
0.87430.34312 0
0.870230.35232 0
0.866160.36151 0
0.862080.37071 0
0.858010.3799 0
0.853940.3891 0
0.849870.3983 0
0.84580.40749 0
0.841730.41669 0
0.837650.42588 0
0.833580.43508 0
0.829510.44428 0
0.825440.45347 0
0.821370.46267 0
0.817290.47187 0
0.813220.48106 0
0.809150.49026 0
0.805080.49945 0
0.801010.50865 0
0.796940.51785 0
0.792860.52704 0
0.788790.53624 0
0.784720.54543 0
0.780650.55463 0
0.776580.56383 0
0.77250.57302 0
0.768430.58222 0
0.764360.59142 0
0.760290.60061 0
0.756220.60981 0
0.957130.16 0
0.952960.16914 0
0.94880.17829 0
0.944630.18743 0
0.940470.19657 0
0.936310.20571 0
0.932140.21486 0
0.927980.224 0
0.923810.23314 0
0.919650.24228 0
0.915480.25143 0
0.911320.26057 0
0.907150.26971 0
0.902990.27885 0
0.898820.288 0
0.894660.29714 0
0.890490.30628 0
0.886330.31542 0
0.882170.32457 0
0.8780.33371 0
0.873840.34285 0
0.869670.35199 0
0.865510.36114 0
0.861340.37028 0
0.857180.37942 0
0.853010.38856 0
0.848850.39771 0
0.844680.40685 0
0.840520.41599 0
0.836350.42513 0
0.832190.43428 0
0.828020.44342 0
0.823860.45256 0
0.81970.4617 0
0.815530.47085 0
0.811370.47999 0
0.80720.48913 0
0.803040.49827 0
0.798870.50742 0
0.794710.51656 0
0.790540.5257 0
0.786380.53485 0
0.782210.54399 0
0.778050.55313 0
0.773880.56227 0
0.769720.57142 0
0.765560.58056 0
0.761390.5897 0
0.757230.59884 0
0.753060.60799 0
0.74890.61713 0
0.954450.17 0
0.950190.17909 0
0.945930.18818 0
0.941680.19727 0
0.937420.20636 0
0.933160.21544 0
0.92890.22453 0
0.924650.23362 0
0.920390.24271 0
0.916130.2518 0
0.911870.26089 0
0.907620.26998 0
0.903360.27907 0
0.89910.28816 0
0.894840.29725 0
0.890590.30633 0
0.886330.31542 0
0.882070.32451 0
0.877810.3336 0
0.873560.34269 0
0.86930.35178 0
0.865040.36087 0
0.860790.36996 0
0.856530.37905 0
0.852270.38814 0
0.848010.39722 0
0.843760.40631 0
0.83950.4154 0
0.835240.42449 0
0.830980.43358 0
0.826730.44267 0
0.822470.45176 0
0.818210.46085 0
0.813950.46994 0
0.80970.47903 0
0.805440.48811 0
0.801180.4972 0
0.796920.50629 0
0.792670.51538 0
0.788410.52447 0
0.784150.53356 0
0.779890.54265 0
0.775640.55174 0
0.771380.56083 0
0.767120.56991 0
0.762860.579 0
0.758610.58809 0
0.754350.59718 0
0.750090.60627 0
0.745830.61536 0
0.741580.62445 0
0.951770.18 0
0.947420.18904 0
0.943070.19807 0
0.938720.20711 0
0.934370.21614 0
0.930020.22518 0
0.925670.23421 0
0.921320.24325 0
0.916970.25228 0
0.912620.26132 0
0.908270.27035 0
0.903920.27939 0
0.899570.28842 0
0.895220.29746 0
0.890870.3065 0
0.886520.31553 0
0.882170.32457 0
0.877810.3336 0
0.873460.34264 0
0.869110.35167 0
0.864760.36071 0
0.860410.36974 0
0.856060.37878 0
0.851710.38781 0
0.847360.39685 0
0.843010.40588 0
0.838660.41492 0
0.834310.42396 0
0.829960.43299 0
0.825610.44203 0
0.821260.45106 0
0.816910.4601 0
0.812560.46913 0
0.808210.47817 0
0.803860.4872 0
0.799510.49624 0
0.795160.50527 0
0.790810.51431 0
0.786460.52334 0
0.782110.53238 0
0.777760.54142 0
0.773410.55045 0
0.769060.55949 0
0.764710.56852 0
0.760360.57756 0
0.756010.58659 0
0.751660.59563 0
0.747310.60466 0
0.742960.6137 0
0.738610.62273 0
0.734260.63177 0
0.949090.19 0
0.944650.19898 0
0.94020.20796 0
0.935760.21695 0
0.931320.22593 0
0.926870.23491 0
0.922430.24389 0
0.917990.25287 0
0.913550.26185 0
0.90910.27084 0
0.904660.27982 0
0.900220.2888 0
0.895770.29778 0
0.891330.30676 0
0.886890.31575 0
0.882440.32473 0
0.8780.33371 0
0.873560.34269 0
0.869110.35167 0
0.864670.36065 0
0.860230.36964 0
0.855790.37862 0
0.851340.3876 0
0.84690.39658 0
0.842460.40556 0
0.838010.41454 0
0.833570.42353 0
0.829130.43251 0
0.824680.44149 0
0.820240.45047 0
0.81580.45945 0
0.811350.46844 0
0.806910.47742 0
0.802470.4864 0
0.798020.49538 0
0.793580.50436 0
0.789140.51334 0
0.78470.52233 0
0.780250.53131 0
0.775810.54029 0
0.771370.54927 0
0.766920.55825 0
0.762480.56724 0
0.758040.57622 0
0.753590.5852 0
0.749150.59418 0
0.744710.60316 0
0.740260.61214 0
0.735820.62113 0
0.731380.63011 0
0.726940.63909 0
0.946410.2 0
0.941870.20893 0
0.937340.21786 0
0.93280.22678 0
0.928270.23571 0
0.923730.24464 0
0.919190.25357 0
0.914660.2625 0
0.910120.27143 0
0.905590.28035 0
0.901050.28928 0
0.896520.29821 0
0.891980.30714 0
0.887440.31607 0
0.882910.32499 0
0.878370.33392 0
0.873840.34285 0
0.86930.35178 0
0.864760.36071 0
0.860230.36964 0
0.855690.37856 0
0.851160.38749 0
0.846620.39642 0
0.842080.40535 0
0.837550.41428 0
0.833010.42321 0
0.828480.43213 0
0.823940.44106 0
0.819410.44999 0
0.814870.45892 0
0.810330.46785 0
0.80580.47677 0
0.801260.4857 0
0.796730.49463 0
0.792190.50356 0
0.787650.51249 0
0.783120.52142 0
0.778580.53034 0
0.774050.53927 0
0.769510.5482 0
0.764970.55713 0
0.760440.56606 0
0.75590.57498 0
0.751370.58391 0
0.746830.59284 0
0.742290.60177 0
0.737760.6107 0
0.733220.61963 0
0.728690.62855 0
0.724150.63748 0
0.719620.64641 0
0.943730.21 0
0.93910.21887 0
0.934470.22775 0
0.929840.23662 0
0.925220.2455 0
0.920590.25437 0
0.915960.26325 0
0.911330.27212 0
0.90670.281 0
0.902070.28987 0
0.897440.29875 0
0.892810.30762 0
0.888190.3165 0
0.883560.32537 0
0.878930.33424 0
0.87430.34312 0
0.869670.35199 0
0.865040.36087 0
0.860410.36974 0
0.855790.37862 0
0.851160.38749 0
0.846530.39637 0
0.84190.40524 0
0.837270.41412 0
0.832640.42299 0
0.828010.43187 0
0.823380.44074 0
0.818760.44961 0
0.814130.45849 0
0.80950.46736 0
0.804870.47624 0
0.800240.48511 0
0.795610.49399 0
0.790980.50286 0
0.786350.51174 0
0.781730.52061 0
0.77710.52949 0
0.772470.53836 0
0.767840.54724 0
0.763210.55611 0
0.758580.56498 0
0.753950.57386 0
0.749320.58273 0
0.74470.59161 0
0.740070.60048 0
0.735440.60936 0
0.730810.61823 0
0.726180.62711 0
0.721550.63598 0
0.716920.64486 0
0.712290.65373 0
0.941050.22 0
0.936330.22882 0
0.931610.23764 0
0.926890.24646 0
0.922170.25528 0
0.917440.26411 0
0.912720.27293 0
0.9080.28175 0
0.903280.29057 0
0.898560.29939 0
0.893840.30821 0
0.889110.31703 0
0.884390.32585 0
0.879670.33467 0
0.874950.34349 0
0.870230.35232 0
0.865510.36114 0
0.860790.36996 0
0.856060.37878 0
0.851340.3876 0
0.846620.39642 0
0.84190.40524 0
0.837180.41406 0
0.832460.42288 0
0.827730.4317 0
0.823010.44053 0
0.818290.44935 0
0.813570.45817 0
0.808850.46699 0
0.804130.47581 0
0.799410.48463 0
0.794680.49345 0
0.789960.50227 0
0.785240.51109 0
0.780520.51991 0
0.77580.52874 0
0.771080.53756 0
0.766350.54638 0
0.761630.5552 0
0.756910.56402 0
0.752190.57284 0
0.747470.58166 0
0.742750.59048 0
0.738020.5993 0
0.73330.60813 0
0.728580.61695 0
0.723860.62577 0
0.719140.63459 0
0.714420.64341 0
0.70970.65223 0
0.704970.66105 0
0.938370.23 0
0.933560.23877 0
0.928740.24753 0
0.923930.2563 0
0.919110.26507 0
0.91430.27384 0
0.909490.2826 0
0.904670.29137 0
0.899860.30014 0
0.895040.30891 0
0.890230.31767 0
0.885410.32644 0
0.88060.33521 0
0.875790.34398 0
0.870970.35274 0
0.866160.36151 0
0.861340.37028 0
0.856530.37905 0
0.851710.38781 0
0.84690.39658 0
0.842080.40535 0
0.837270.41412 0
0.832460.42288 0
0.827640.43165 0
0.822830.44042 0
0.818010.44919 0
0.81320.45795 0