# vtk DataFile Version 2.0
Data printed from this dope TSALS Program
ASCII
DATASET UNSTRUCTURED_GRID
POINTS 132651 FLOAT

CELLS 1 9
8 1 2 3 4 5 6 7 8

CELL_TYPES 1
11 

POINT_DATA 132651
VECTORS PDVector float

CELL_DATA 1
TENSORS PDGradient float
-0.0068301 -0.0068301 -0.0068301
0.0068301 0.0068301 0.0068301
0 0 0 

