TITLE= "FE-Volume_Brick_Data" 
VARIABLES ="X", "Y", "Z", "TestData", "dx", "dy", "dz"
ZONE I= 98, J= 82, K=10, DATAPACKING=POINT 
0	0	0	0.12	-0.004	-0.014	0.058
0	0.11	0	0.109	-0.003	-0.001	0.063
0	0.22	0	0.113	-0.0014167	-0.008	0.059
0	0.33	0	0.105	0.0040833	-0.012	0.044
0	0.44	0	0.111	0.0055	-0.018	0.051
0	0.55	0	0.105	-0.0015833	-0.01	0.04
0	0.66	0	0.112	0.0011667	-0.003	0.049
0	0.77	0	0.107	0.0026667	-0.009	0.047
0	0.88	0	0.107	-0.0059167	-0.019	0.062
0	0.99	0	0.102	-0.0068333	-0.005	0.054
0	1.1	0	0.096	-0.0018333	-0.005	0.056
0	1.21	0	0.094	0.002	-0.004	0.073
0	1.32	0	0.092	-0.00275	-0.006	0.068
0	1.43	0	0.093	-0.00058333	-0.003	0.069
0	1.54	0	0.091	0.0019167	-0.016	0.081
0	1.65	0	0.089	0.0011667	-0.034	0.086
0	1.76	0	0.09	-0.00041667	-0.026	0.086
0	1.87	0	0.088	-0.00375	-0.01	0.094
0	1.98	0	0.091	0.0043333	-0.004	0.092
0	2.09	0	0.085	0.00075	-0.008	0.086
0	2.2	0	0.085	-0.0044167	-0.001	0.09
0	2.31	0	0.091	-0.0030833	-0.009	0.092
0	2.42	0	0.093	0.0063333	0.003	0.098
0	2.53	0	0.093	0.01475	0	0.084
0	2.64	0	0.093	0.002	-0.015	0.067
0	2.75	0	0.088	-0.015167	-0.021	0.072
0	2.86	0	0.088	-0.0065	0.003	0.07
0	2.97	0	0.095	-0.00033333	0.008	0.091
0	3.08	0	0.094	0.00091667	0.003	0.092
0	3.19	0	0.096	-0.00066667	-0.015	0.062
0	3.3	0	0.097	-0.00016667	-0.019	0.052
0	3.41	0	0.093	-0.001	-0.026	0.065
0	3.52	0	0.094	-0.016917	0.006	0.098
0	3.63	0	0.094	-0.0053333	0.025	0.121
0	3.74	0	0.095	0.017417	0.005	0.125
0	3.85	0	0.092	0.0075	-0.015	0.104
0	3.96	0	0.091	0.00033333	0.006	0.109
0	4.07	0	0.092	0.0028333	-0.005	0.1
0	4.18	0	0.096	0.0010833	-0.007	0.1
0	4.29	0	0.089	0.00275	-0.015	0.115
0	4.4	0	0.095	0.007	-0.014	0.097
0	4.51	0	0.086	0.00425	-0.022	0.087
0	4.62	0	0.094	-0.01025	-0.009	0.089
0	4.73	0	0.09	-0.0014167	0	0.067
0	4.84	0	0.092	0.00575	-0.01	0.054
0	4.95	0	0.114	-0.00083333	-0.012	0.068
0	5.06	0	0.084	-0.0078333	-0.005	0.083
0	5.17	0	0.085	-0.0083333	0.006	0.098
0	5.28	0	0.082	-0.0081667	0.019	0.105
0	5.39	0	0.105	0.00125	0.027	0.107
0	5.5	0	0.086	0.0099167	0.016	0.099
0	5.61	0	0.083	-0.0011667	0	0.07
0	5.72	0	0.086	-0.0065	-0.006	0.088
0	5.83	0	0.088	0.0044167	-0.001	0.099
0	5.94	0	0.093	0.0081667	0.003	0.105
0	6.05	0	0.079	-0.0069167	0.001	0.115
0	6.16	0	0.078	-0.00041667	0.012	0.104
0	6.27	0	0.064	0.0044167	0.009	0.048
0	6.38	0	0.082	-0.00375	0.017	0.118
0	6.49	0	0.076	0.0046667	0.015	0.103
0	6.6	0	0.09	0.0021667	0.006	0.106
0	6.71	0	0.083	-0.00125	0.008	0.105
0	6.82	0	0.09	0.0018333	0.002	0.089
0	6.93	0	0.118	0.0013333	0.011	0.086
0	7.04	0	0.079	0.0025833	0.013	0.086
0	7.15	0	0.081	0.002	0.013	0.083
0	7.26	0	0.085	0.012167	-0.008	0.095
0	7.37	0	0.121	0.00016667	-0.021	0.073
0	7.48	0	0.088	-0.012583	-0.006	0.077
0	7.59	0	0.083	-0.0083333	-0.003	0.086
0	7.7	0	0.088	-0.0096667	0.011	0.103
0	7.81	0	0.117	0.0086667	0.014	0.102
0	7.92	0	0.081	0.009	-0.008	0.08
0	8.03	0	0.071	-0.00225	-0.007	0.078
0	8.14	0	0.072	0.0025	-0.004	0.095
0	8.25	0	0.069	0.0014167	-0.007	0.095
0	8.36	0	0.067	0.0015	-0.01	0.099
0	8.47	0	0.112	0.0020833	-0.024	0.101
0	8.58	0	0.072	-0.00225	-0.01	0.087
0	8.69	0	0.106	-0.0051667	-0.02	0.085
0	8.8	0	0.073	0.0024167	-0.018	0.094
0	8.91	0	0.067	-0.0028333	-0.018	0.092
0.11	0	0	0.091	-0.0053333	-0.003	0.066
0.11	0.11	0	0.106	0.0039167	-0.011	0.048
0.11	0.22	0	0.067	0.00075	-0.012	0.057
0.11	0.33	0	0.11	-0.0041667	-0.008	0.056
0.11	0.44	0	0.074	0.00066667	-0.005	0.065
0.11	0.55	0	0.108	0.0041667	-0.011	0.064
0.11	0.66	0	0.079	-0.0020833	-0.006	0.069
0.11	0.77	0	0.108	-0.00275	-0.002	0.068
0.11	0.88	0	0.078	-0.0029167	0.007	0.062
0.11	0.99	0	0.112	0.0060833	0.001	0.074
0.11	1.1	0	0.082	-0.0025	-0.01	0.064
0.11	1.21	0	0.115	-0.011833	0	0.086
0.11	1.32	0	0.08	0.0025833	0.009	0.093
0.11	1.43	0	0.118	0.0070833	0.003	0.084
0.11	1.54	0	0.085	0	0	0.091
0.11	1.65	0	0.117	-0.004	0.003	0.088
0.11	1.76	0	0.116	0.009	-0.009	0.103
0.11	1.87	0	0.113	0	-0.0175	0.094
0.11	1.98	0	0.116	-0.0084167	-0.011	0.091
0.11	2.09	0	0.106	-0.0018333	-0.0045	0.092
0.11	2.2	0	0.117	0.0064167	-0.0055	0.105
0.11	2.31	0	0.108	0.0081667	-0.0125	0.098
0.11	2.42	0	0.112	0.0019167	-0.0065	0.077
0.11	2.53	0	0.107	-0.0084167	-0.0125	0.075
0.11	2.64	0	0.106	-0.0030833	-0.0085	0.081
0.11	2.75	0	0.101	0.0020833	-0.0025	0.085
0.11	2.86	0	0.096	-0.00225	-0.0045	0.085
0.11	2.97	0	0.093	0.0011667	-0.0055	0.066
0.11	3.08	0	0.098	-0.0011667	-0.003	0.051
0.11	3.19	0	0.09	-0.00475	0.0065	0.07
0.11	3.3	0	0.091	-0.017083	-0.002	0.095
0.11	3.41	0	0.089	-0.0049167	-0.0045	0.124
0.11	3.52	0	0.09	0.014583	-0.018	0.128
0.11	3.63	0	0.098	0.00875	-0.016	0.112
0.11	3.74	0	0.085	0.0035833	-0.007	0.113
0.11	3.85	0	0.086	0.0026667	-0.0035	0.109
0.11	3.96	0	0.079	-0.0056667	-0.0055	0.107
0.11	4.07	0	0.089	-0.0010833	-0.0065	0.119
0.11	4.18	0	0.092	0.0135	0.0025	0.106
0.11	4.29	0	0.089	0.00375	-0.0085	0.093
0.11	4.4	0	0.078	-0.012	-0.0135	0.095
0.11	4.51	0	0.09	-0.0038333	-0.008	0.079
0.11	4.62	0	0.081	0.011333	-0.0015	0.066
0.11	4.73	0	0.093	-0.00083333	-0.002	0.071
0.11	4.84	0	0.087	-0.012583	0.005	0.091
0.11	4.95	0	0.094	-0.0125	-0.0005	0.105
0.11	5.06	0	0.086	-0.00775	0.0045	0.123
0.11	5.17	0	0.087	0.012333	-0.0005	0.116
0.11	5.28	0	0.089	0.015083	0.0065	0.107
0.11	5.39	0	0.091	-0.0069167	0.0145	0.084
0.11	5.5	0	0.09	-0.00925	0.0135	0.102
0.11	5.61	0	0.093	0.010667	0.004	0.104
0.11	5.72	0	0.087	0.008	0.0065	0.103
0.11	5.83	0	0.093	-0.0058333	-0.0005	0.129
0.11	5.94	0	0.092	-0.0039167	-0.0095	0.111
0.11	6.05	0	0.089	-0.0005	-0.01	0.061
0.11	6.16	0	0.091	0.0025	-0.0005	0.108
0.11	6.27	0	0.088	0.0063333	-0.005	0.109
0.11	6.38	0	0.089	0.0040833	-0.0015	0.111
0.11	6.49	0	0.09	-0.0029167	0.003	0.103
0.11	6.6	0	0.091	-0.0025833	0.003	0.092
0.11	6.71	0	0.115	0.002	0.0005	0.102
0.11	6.82	0	0.087	0.00175	0.001	0.09
0.11	6.93	0	0.086	0.0044167	0.0055	0.096
0.11	7.04	0	0.083	0.0040833	0.007	0.087
0.11	7.15	0	0.11	-0.00025	0.015	0.09
0.11	7.26	0	0.109	-0.006	0.001	0.087
0.11	7.37	0	0.084	-0.0135	-0.001	0.099
0.11	7.48	0	0.079	-0.0060833	0.0035	0.112
0.11	7.59	0	0.081	0.010333	0.006	0.106
0.11	7.7	0	0.082	0.008	-0.0005	0.094
0.11	7.81	0	0.08	-0.00175	0.0005	0.089
0.11	7.92	0	0.066	0.00375	0.0025	0.108
0.11	8.03	0	0.072	0.0065833	-0.001	0.109
0.11	8.14	0	0.082	0.00075	-0.0005	0.094
0.11	8.25	0	0.082	-0.0025833	0.001	0.093
0.11	8.36	0	0.08	-0.00125	-0.007	0.086
0.11	8.47	0	0.08	-0.0035833	-0.01	0.084
0.11	8.58	0	0.084	0.00325	-0.009	0.094
0.11	8.69	0	0.087	0.00825	-0.0095	0.091
0.11	8.8	0	0.077	0.00475	-0.009	0.08
0.11	8.91	0	0.08	-0.0093333	-0.0135	0.08
0.22	0	0	0.081	-0.0089167	-0.014	0.062
0.22	0.11	0	0.082	0.0028333	-0.022	0.065
0.22	0.22	0	0.087	-0.0021667	-0.014	0.056
0.22	0.33	0	0.122	8.3333e-05	-0.009	0.056
0.22	0.44	0	0.102	0.0018333	0	0.042
0.22	0.55	0	0.113	-0.0036667	0.004	0.055
0.22	0.66	0	0.107	-0.00375	-0.0025	0.065
0.22	0.77	0	0.109	0.0021667	-0.0065	0.069
0.22	0.88	0	0.099	0.0026667	-0.007	0.07
0.22	0.99	0	0.063	-0.0011667	-0.0085	0.063
0.22	1.1	0	0.065	-0.0093333	-0.0095	0.066
0.22	1.21	0	0.116	0.0031667	-0.007	0.073
0.22	1.32	0	0.067	0.0010833	-0.005	0.065
0.22	1.43	0	0.107	-0.011	-0.007	0.081
0.22	1.54	0	0.068	0.0031667	-0.0075	0.093
0.22	1.65	0	0.112	0.0064167	-0.016	0.084
0.22	1.76	0	0.087	-0.0011667	-0.0065	0.091
0.22	1.87	0	0.062	-0.0029167	-0.004	0.088
0.22	1.98	0	0.063	0.0029167	-0.0055	0.1
0.22	2.09	0	0.105	0.0005	-0.007	0.092
0.22	2.2	0	0.067	-0.0018333	-0.0045	0.093
0.22	2.31	0	0.11	0.003	-0.009	0.084
0.22	2.42	0	0.073	0.0029167	-0.009	0.096
0.22	2.53	0	0.112	0.0049167	-0.0025	0.099
0.22	2.64	0	0.077	-0.00058333	-0.0025	0.079
0.22	2.75	0	0.114	-0.0054167	-0.0045	0.079
0.22	2.86	0	0.111	-0.0033333	-0.007	0.08
0.22	2.97	0	0.113	0.00066667	0.0055	0.096
0.22	3.08	0	0.075	0.00375	0.002	0.087
0.22	3.19	0	0.117	0.00083333	-0.0085	0.059
0.22	3.3	0	0.081	0	-0.0185	0.044
0.22	3.41	0	0.121	-0.001	-0.0185	0.058
0.22	3.52	0	0.114	-0.021	-0.0098333	0.075
0.22	3.63	0	0.114	-0.005	-0.0060833	0.115
0.22	3.74	0	0.115	0.015333	-0.0085	0.117
0.22	3.85	0	0.109	0.010583	-0.0084167	0.108
0.22	3.96	0	0.113	-0.0059167	-0.0016667	0.102
0.22	4.07	0	0.105	-0.0015833	-0.0096667	0.116
0.22	4.18	0	0.108	0.0016667	-0.00625	0.106
0.22	4.29	0	0.105	-0.0016667	-0.00066667	0.116
0.22	4.4	0	0.104	0.0070833	0.0038333	0.11
0.22	4.51	0	0.098	-0.0026667	-0.004	0.103
0.22	4.62	0	0.102	-0.00675	0.00325	0.112
0.22	4.73	0	0.094	0.0025	-0.00175	0.075
0.22	4.84	0	0.095	0.012833	-0.0051667	0.07
0.22	4.95	0	0.08	0.00058333	-0.0005	0.076
0.22	5.06	0	0.093	-0.01025	0.0055833	0.091
0.22	5.17	0	0.085	-0.016417	0.021083	0.101
0.22	5.28	0	0.084	-0.014917	0.014	0.124
0.22	5.39	0	0.085	0.01075	0.015	0.124
0.22	5.5	0	0.088	0.018917	0.013667	0.117
0.22	5.61	0	0.086	0.0011667	0.00125	0.099
0.22	5.72	0	0.086	-0.01	-0.0055833	0.097
0.22	5.83	0	0.112	0.0084167	-0.003	0.106
0.22	5.94	0	0.09	0.005	-0.00125	0.102
0.22	6.05	0	0.093	-0.0063333	0.00058333	0.12
0.22	6.16	0	0.088	0.0033333	0.0044167	0.104
0.22	6.27	0	0.089	-0.00025	0.019	0.052
0.22	6.38	0	0.087	-0.0015833	0.01925	0.106
0.22	6.49	0	0.087	0.0070833	-0.00058333	0.102
0.22	6.6	0	0.095	0.0019167	0.008	0.105
0.22	6.71	0	0.095	-0.0015833	0.016	0.103
0.22	6.82	0	0.093	-0.00041667	0.025	0.094
0.22	6.93	0	0.089	-0.00083333	0.024333	0.089
0.22	7.04	0	0.089	0.0015833	0.018083	0.102
0.22	7.15	0	0.094	0.00325	0.012417	0.103
0.22	7.26	0	0.093	0.0034167	0.010333	0.104
0.22	7.37	0	0.093	0.00066667	0.016167	0.092
0.22	7.48	0	0.09	-0.0018333	0.0018333	0.087
0.22	7.59	0	0.091	-0.016167	0.00225	0.101
0.22	7.7	0	0.091	-0.010417	0.0051667	0.123
0.22	7.81	0	0.088	0.0155	0.0055	0.111
0.22	7.92	0	0.091	0.012333	0.0035	0.092
0.22	8.03	0	0.087	0.00075	-0.0005	0.089
0.22	8.14	0	0.088	-0.00016667	-0.00425	0.096
0.22	8.25	0	0.089	0.0036667	-0.0045833	0.1
0.22	8.36	0	0.087	0.002	-0.001	0.096
0.22	8.47	0	0.087	-0.0039167	0.0018333	0.091
0.22	8.58	0	0.115	-0.0018333	-0.015333	0.089
0.22	8.69	0	0.09	-0.00275	-0.023333	0.104
0.22	8.8	0	0.082	0.0045	-0.027417	0.102
0.22	8.91	0	0.115	-0.0056667	-0.019333	0.087
0.33	0	0	0.109	-0.010833	-0.0225	0.069
0.33	0.11	0	0.085	0.0036667	-0.011083	0.063
0.33	0.22	0	0.082	0.0030833	-0.0041667	0.061
0.33	0.33	0	0.081	-0.0011667	-0.0091667	0.058
0.33	0.44	0	0.087	0.001	-0.018417	0.063
0.33	0.55	0	0.083	-0.00175	-0.00525	0.067
0.33	0.66	0	0.08	-0.0024167	-0.00575	0.075
0.33	0.77	0	0.08	0.00033333	-0.005	0.067
0.33	0.88	0	0.078	0.0005	-0.0083333	0.082
0.33	0.99	0	0.083	-0.0025	-0.010333	0.078
0.33	1.1	0	0.081	-0.011083	-0.0085833	0.084
0.33	1.21	0	0.08	-0.0021667	-0.0074167	0.098
0.33	1.32	0	0.08	0.0028333	-0.0079167	0.098
0.33	1.43	0	0.078	0.0019167	-0.011083	0.109
0.33	1.54	0	0.115	-0.0019167	-0.013917	0.097
0.33	1.65	0	0.08	-0.0025833	-0.011	0.101
0.33	1.76	0	0.108	0.0016667	-0.0034167	0.112
0.33	1.87	0	0.08	-0.00058333	-0.00725	0.095
0.33	1.98	0	0.107	0.0024167	-0.0085833	0.099
0.33	2.09	0	0.114	0.006	-0.01175	0.09
0.33	2.2	0	0.103	0.00575	-0.00675	0.1
0.33	2.31	0	0.107	0.0049167	-0.0034167	0.103
0.33	2.42	0	0.108	-0.0038333	-0.0035	0.101
0.33	2.53	0	0.106	-0.0061667	-0.0056667	0.104
0.33	2.64	0	0.094	0.001	-0.0075833	0.103
0.33	2.75	0	0.111	-0.0018333	-0.0035	0.102
0.33	2.86	0	0.093	0.0031667	-0.0005	0.096
0.33	2.97	0	0.112	0.0078333	0.004	0.078
0.33	3.08	0	0.095	-0.0025833	-0.00475	0.064
0.33	3.19	0	0.113	-0.007	0.0099167	0.069
0.33	3.3	0	0.106	-0.0093333	0.0066667	0.054
0.33	3.41	0	0.102	-0.002	-0.00091667	0.084
0.33	3.52	0	0.093	0.010333	-0.012083	0.105
0.33	3.63	0	0.101	0.00375	-0.01	0.104
0.33	3.74	0	0.087	-0.0035833	-0.00175	0.112
0.33	3.85	0	0.099	-0.002	-0.00075	0.114
0.33	3.96	0	0.086	-0.0014167	-0.00091667	0.116
0.33	4.07	0	0.107	-0.0025833	-0.00425	0.123
0.33	4.18	0	0.104	0.00625	-0.012417	0.124
0.33	4.29	0	0.074	0.0051667	-0.007	0.108
0.33	4.4	0	0.102	-0.0059167	-0.0043333	0.111
0.33	4.51	0	0.109	-0.00125	0.00275	0.084
0.33	4.62	0	0.098	0.010083	0.001	0.056
0.33	4.73	0	0.116	0.00083333	0.00041667	0.084
0.33	4.84	0	0.107	-0.014167	-0.005	0.104
0.33	4.95	0	0.1	-0.01625	-0.004	0.118
0.33	5.06	0	0.107	-0.01	-0.0020833	0.134
0.33	5.17	0	0.119	-0.004	-0.0035	0.143
0.33	5.28	0	0.114	0.015	0.0039167	0.151
0.33	5.39	0	0.114	0.0015	0.01825	0.109
0.33	5.5	0	0.113	-0.010917	0.012833	0.103
0.33	5.61	0	0.111	0.006	0.0085	0.114
0.33	5.72	0	0.11	0.0035833	0.0095833	0.114
0.33	5.83	0	0.104	0.0015	0.00925	0.103
0.33	5.94	0	0.106	0.0094167	0.0011667	0.117
0.33	6.05	0	0.101	0.00075	0.0016667	0.115
0.33	6.16	0	0.105	-0.0058333	0.002	0.096
0.33	6.27	0	0.1	0.0030833	0.0033333	0.111
0.33	6.38	0	0.103	0.0024167	0.01075	0.102
0.33	6.49	0	0.095	-0.0060833	0.020083	0.112
0.33	6.6	0	0.091	-0.00075	0.024833	0.093
0.33	6.71	0	0.086	0.0011667	0.001	0.095
0.33	6.82	0	0.089	0.0020833	0.00575	0.108
0.33	6.93	0	0.092	0.0018333	0.01175	0.106
0.33	7.04	0	0.083	0.0076667	0.029	0.108
0.33	7.15	0	0.089	0.010083	0.0295	0.101
0.33	7.26	0	0.085	-0.0091667	0.0070833	0.101
0.33	7.37	0	0.088	-0.01425	0.00033333	0.099
0.33	7.48	0	0.087	-0.0078333	0.0046667	0.113
0.33	7.59	0	0.091	0.00375	0.0056667	0.112
0.33	7.7	0	0.087	0.015167	-0.0034167	0.094
0.33	7.81	0	0.099	0.0045	0.0025	0.095
0.33	7.92	0	0.087	0.0035	-0.0005	0.104
0.33	8.03	0	0.093	0.012917	-0.0038333	0.089
0.33	8.14	0	0.092	-0.008	-0.003	0.081
0.33	8.25	0	0.087	-0.011833	-0.0020833	0.096
0.33	8.36	0	0.096	0.0028333	-0.011083	0.092
0.33	8.47	0	0.092	0.0005	-0.010333	0.086
0.33	8.58	0	0.09	-0.001	-0.020833	0.091
0.33	8.69	0	0.091	0.0065	-0.013667	0.088
0.33	8.8	0	0.093	0.0073333	-0.014	0.079
0.33	8.91	0	0.096	-0.012583	-0.011917	0.08
0.44	0	0	0.091	-0.0059167	-0.016583	0.063
0.44	0.11	0	0.092	0.0028333	-0.017167	0.058
0.44	0.22	0	0.094	-0.0045833	-0.011417	0.052
0.44	0.33	0	0.088	-0.0013333	-0.0063333	0.058
0.44	0.44	0	0.115	-0.00016667	0.0085833	0.057
0.44	0.55	0	0.089	-0.0013333	0.01125	0.061
0.44	0.66	0	0.086	-0.0041667	-0.001	0.067
0.44	0.77	0	0.089	-0.0016667	-0.010333	0.076
0.44	0.88	0	0.088	0.0021667	-0.01125	0.071
0.44	0.99	0	0.09	8.3333e-05	-0.0095	0.081
0.44	1.1	0	0.086	0.0040833	-0.017083	0.09
0.44	1.21	0	0.095	-0.00975	-0.014917	0.087
0.44	1.32	0	0.088	-0.018583	-0.01125	0.111
0.44	1.43	0	0.1	-0.0031667	-0.0064167	0.112
0.44	1.54	0	0.088	0.0088333	-0.0025833	0.125
0.44	1.65	0	0.11	0.00225	-0.0205	0.113
0.44	1.76	0	0.083	-0.00083333	-0.0043333	0.117
0.44	1.87	0	0.084	0.0038333	-0.0005	0.104
0.44	1.98	0	0.083	-0.0039167	-0.0039167	0.096
0.44	2.09	0	0.081	-0.005	-0.0045	0.095
0.44	2.2	0	0.08	0.010833	-0.00091667	0.099
0.44	2.31	0	0.085	0.011167	-0.0063333	0.08
0.44	2.42	0	0.082	0.0031667	0.00083333	0.106
0.44	2.53	0	0.086	0.0038333	0.00016667	0.107
0.44	2.64	0	0.074	-0.0040833	-0.00041667	0.106
0.44	2.75	0	0.117	-0.0029167	-0.0025833	0.11
0.44	2.86	0	0.085	0.0014167	0.0045	0.107
0.44	2.97	0	0.121	-0.0028333	0.010083	0.095
0.44	3.08	0	0.08	0.00058333	0.007	0.099
0.44	3.19	0	0.082	0.0028333	0.012583	0.091
0.44	3.3	0	0.085	0.003	0.008	0.083
0.44	3.41	0	0.081	-0.00016667	0.00675	0.071
0.44	3.52	0	0.078	-0.0068333	0.0040833	0.056
0.44	3.63	0	0.073	-0.00175	0.0090833	0.056
0.44	3.74	0	0.103	-0.00525	0.00875	0.084
0.44	3.85	0	0.109	0.002	0.00016667	0.114
0.44	3.96	0	0.102	0.0105	-0.004	0.111
0.44	4.07	0	0.07	-0.0018333	-0.0095	0.101
0.44	4.18	0	0.109	-0.0063333	-0.0055833	0.112
0.44	4.29	0	0.104	-0.0010833	0.00075	0.12
0.44	4.4	0	0.099	0.0043333	0.0065833	0.116
0.44	4.51	0	0.066	0.00375	0.0020833	0.11
0.44	4.62	0	0.093	-0.0029167	0.00025	0.107
0.44	4.73	0	0.11	-0.0025	-0.0085833	0.096
0.44	4.84	0	0.094	0.00675	-0.0039167	0.077
0.44	4.95	0	0.082	0.0015833	-0.0020833	0.1
0.44	5.06	0	0.072	-0.0073333	0.0028333	0.104
0.44	5.17	0	0.095	-0.0098333	0.0059167	0.104
0.44	5.28	0	0.099	-0.0081667	0.0030833	0.12
0.44	5.39	0	0.1	0.0075833	-0.0013333	0.119
0.44	5.5	0	0.098	0.010833	0.0049167	0.13
0.44	5.61	0	0.107	0.0005	0.0045833	0.109
0.44	5.72	0	0.061	-0.0044167	0.0025	0.095
0.44	5.83	0	0.101	-0.00825	0.0035833	0.099
0.44	5.94	0	0.105	0.00125	0.0050833	0.115
0.44	6.05	0	0.118	0.013083	-0.0005	0.107
0.44	6.16	0	0.101	0.0088333	-0.00066667	0.104
0.44	6.27	0	0.095	-0.0005	0.00775	0.089
0.44	6.38	0	0.098	-0.0060833	0.015833	0.107
0.44	6.49	0	0.112	-0.0038333	-0.00175	0.105
0.44	6.6	0	0.112	0.00016667	0.012833	0.106
0.44	6.71	0	0.101	0.0033333	0.023333	0.098
0.44	6.82	0	0.089	0	0.03175	0.088
0.44	6.93	0	0.112	-0.003	0.032083	0.093
0.44	7.04	0	0.121	-0.001	0.022083	0.098
0.44	7.15	0	0.108	0.001	0.0083333	0.099
0.44	7.26	0	0.115	0.0054167	0.011917	0.094
0.44	7.37	0	0.108	0.0085	0.014917	0.088
0.44	7.48	0	0.11	-0.0049167	0.0053333	0.081
0.44	7.59	0	0.105	-0.0105	0.0055833	0.103
0.44	7.7	0	0.103	-0.0053333	-0.00175	0.104
0.44	7.81	0	0.103	0.001	-0.0061667	0.103
0.44	7.92	0	0.102	0.00825	-0.0021667	0.094
0.44	8.03	0	0.106	0.00475	0.005	0.1
0.44	8.14	0	0.101	0.0085	0.0065833	0.089
0.44	8.25	0	0.091	0.014833	0.010583	0.081
0.44	8.36	0	0.095	-0.0070833	-0.0030833	0.081
0.44	8.47	0	0.093	-0.016417	-0.0010833	0.093
0.44	8.58	0	0.085	0.00175	-0.0026667	0.097
0.44	8.69	0	0.091	0.0033333	-0.00975	0.086
0.44	8.8	0	0.104	0.001	-0.013917	0.089
0.44	8.91	0	0.102	-0.01025	-0.019083	0.086
0.55	0	0	0.083	-0.00725	-0.017417	0.061
0.55	0.11	0	0.093	0.0014167	-0.003	0.064
0.55	0.22	0	0.087	-0.0026667	-8.3333e-05	0.067
0.55	0.33	0	0.098	0.00025	0.0048333	0.071
0.55	0.44	0	0.09	0.001	-0.0031667	0.077
0.55	0.55	0	0.108	-0.0025833	-0.0085	0.082
0.55	0.66	0	0.089	-0.00083333	-0.0089167	0.09
0.55	0.77	0	0.093	-0.001	-0.0078333	0.075
0.55	0.88	0	0.09	-0.00091667	-0.016083	0.095
0.55	0.99	0	0.094	-0.0013333	-0.00875	0.093
0.55	1.1	0	0.093	-0.0026667	-0.014167	0.1
0.55	1.21	0	0.091	-0.00775	-0.01175	0.108
0.55	1.32	0	0.092	-0.00275	-0.010917	0.123
0.55	1.43	0	0.095	0.0040833	-0.015417	0.124
0.55	1.54	0	0.093	0.00175	-0.02375	0.127
0.55	1.65	0	0.094	0.0031667	-0.012917	0.121
0.55	1.76	0	0.094	-0.0021667	0.00125	0.095
0.55	1.87	0	0.091	0.0026667	-0.014667	0.087
0.55	1.98	0	0.095	0.0058333	-0.0098333	0.087
0.55	2.09	0	0.089	0.0015	-0.0033333	0.095
0.55	2.2	0	0.086	0.00675	-0.0054167	0.104
0.55	2.31	0	0.087	0.0066667	8.3333e-05	0.104
0.55	2.42	0	0.085	-0.00775	0.00033333	0.11
0.55	2.53	0	0.086	-0.0078333	0.0010833	0.124
0.55	2.64	0	0.086	0.0025833	0.00125	0.106
0.55	2.75	0	0.089	-0.0010833	0.0028333	0.097
0.55	2.86	0	0.085	-0.0033333	0.00225	0.122
0.55	2.97	0	0.098	0.0010833	-0.0018333	0.106
0.55	3.08	0	0.09	0.0044167	0.012167	0.102
0.55	3.19	0	0.112	0.0065	0.017167	0.083
0.55	3.3	0	0.087	-0.0093333	0.021833	0.079
0.55	3.41	0	0.11	-0.0058333	0.026	0.07
0.55	3.52	0	0.086	0.0085	0.037167	0.089
0.55	3.63	0	0.083	0.001	0.01	0.12
0.55	3.74	0	0.084	-0.00041667	0.0086667	0.124
0.55	3.85	0	0.08	0.0015833	0.013083	0.118
0.55	3.96	0	0.083	-0.0020833	0.016333	0.114
0.55	4.07	0	0.085	-0.00075	0.0040833	0.122
0.55	4.18	0	0.083	0.003	-0.0018333	0.121
0.55	4.29	0	0.083	-0.002	-0.00675	0.111
0.55	4.4	0	0.108	-0.0025833	-0.0045	0.113
0.55	4.51	0	0.084	0.0015833	-0.0015833	0.108
0.55	4.62	0	0.085	0.00058333	-0.0015833	0.092
0.55	4.73	0	0.084	-0.0013333	-0.0055833	0.101
0.55	4.84	0	0.09	0.0045	-0.001	0.104
0.55	4.95	0	0.082	0.0024167	-0.00575	0.101
0.55	5.06	0	0.08	-0.0075833	-0.0025	0.112
0.55	5.17	0	0.084	-0.0048333	-0.006	0.106
0.55	5.28	0	0.077	0.0041667	-0.00275	0.112
0.55	5.39	0	0.074	0.0040833	-0.0061667	0.108
0.55	5.5	0	0.102	-0.0045833	-0.0025	0.095
0.55	5.61	0	0.099	-0.0038333	0.006	0.103
0.55	5.72	0	0.093	-0.0019167	0.002	0.095
0.55	5.83	0	0.097	0.0034167	0.00033333	0.125
0.55	5.94	0	0.096	0.0055	0.0021667	0.106
0.55	6.05	0	0.11	0.0043333	0.0058333	0.113
0.55	6.16	0	0.108	0.0015	0.0031667	0.101
0.55	6.27	0	0.061	-0.00625	0.0014167	0.116
0.55	6.38	0	0.065	-0.0043333	-0.003	0.11
0.55	6.49	0	0.106	0.0041667	0.01	0.106
0.55	6.6	0	0.096	0.0029167	0.012	0.088
0.55	6.71	0	0.076	-0.00075	0.0035833	0.092
0.55	6.82	0	0.08	-0.00225	0.010167	0.093
0.55	6.93	0	0.108	-0.00275	0.014083	0.103
0.55	7.04	0	0.103	0.0029167	0.020167	0.094
0.55	7.15	0	0.115	0.0054167	0.022	0.104
0.55	7.26	0	0.069	0.00125	0.0059167	0.102
0.55	7.37	0	0.108	-0.0050833	0.002	0.1
0.55	7.48	0	0.105	-0.0026667	0.0026667	0.104
0.55	7.59	0	0.11	-8.3333e-05	0.0024167	0.105
0.55	7.7	0	0.105	0.0031667	0.0091667	0.101
0.55	7.81	0	0.12	0.0049167	0.01675	0.101
0.55	7.92	0	0.099	0.0078333	0.05675	0.096
0.55	8.03	0	0.084	0.010167	0.061167	0.09
0.55	8.14	0	0.085	-0.0065	0.010083	0.098
0.55	8.25	0	0.108	-0.0065833	0.01425	0.106
0.55	8.36	0	0.112	0.0061667	-0.013583	0.097
0.55	8.47	0	0.109	-0.00016667	-0.00875	0.088
0.55	8.58	0	0.103	-0.003	-0.00975	0.094
0.55	8.69	0	0.111	-0.003	-0.00525	0.096
0.55	8.8	0	0.123	-0.003	-0.0064167	0.083
0.55	8.91	0	0.115	-0.0055	-0.0044167	0.081
0.66	0	0	0.115	-0.0040833	-0.0070833	0.068
0.66	0.11	0	0.112	-0.0015	-0.0115	0.065
0.66	0.22	0	0.109	-0.00325	-0.014583	0.057
0.66	0.33	0	0.105	-0.0026667	-0.0055833	0.062
0.66	0.44	0	0.104	-0.001	-0.0018333	0.057
0.66	0.55	0	0.124	0.00033333	0.0061667	0.072
0.66	0.66	0	0.105	0.0025	-0.0055833	0.074
0.66	0.77	0	0.106	0.0098333	-0.011	0.066
0.66	0.88	0	0.101	0.0085833	-0.016167	0.063
0.66	0.99	0	0.093	-0.015167	-0.02625	0.06
0.66	1.1	0	0.094	-0.012833	-0.03125	0.095
0.66	1.21	0	0.09	0.0035833	-0.0185	0.096
0.66	1.32	0	0.083	-0.0029167	-0.016833	0.097
0.66	1.43	0	0.093	-0.0044167	-0.0095833	0.109
0.66	1.54	0	0.092	0.00125	-0.01325	0.112
0.66	1.65	0	0.092	0.0046667	-0.01325	0.108
0.66	1.76	0	0.09	0.00325	0.00225	0.108
0.66	1.87	0	0.089	0.00016667	-0.00066667	0.09
0.66	1.98	0	0.088	-0.00016667	0.0029167	0.084
0.66	2.09	0	0.11	0.00041667	0.0030833	0.08
0.66	2.2	0	0.093	0.0016667	0.0038333	0.08
0.66	2.31	0	0.113	0.00091667	-0.0011667	0.094
0.66	2.42	0	0.093	0.00575	0.0040833	0.108
0.66	2.53	0	0.095	0.0055833	0.0031667	0.094
0.66	2.64	0	0.092	-0.0079167	0.0061667	0.106
0.66	2.75	0	0.095	-0.01	0.0053333	0.117
0.66	2.86	0	0.091	-0.0010833	0.0095833	0.113
0.66	2.97	0	0.091	0.0045833	0.0095	0.102
0.66	3.08	0	0.092	-0.0026667	0.01675	0.098
0.66	3.19	0	0.093	-0.0045833	0.019417	0.112
0.66	3.3	0	0.094	0.0066667	0.025833	0.108
0.66	3.41	0	0.089	0.0095833	0.0054167	0.095
0.66	3.52	0	0.095	-0.0093333	0.0010833	0.083
0.66	3.63	0	0.087	-0.0090833	0.0091667	0.106
0.66	3.74	0	0.089	0.0078333	0.0014167	0.104
0.66	3.85	0	0.091	0.0039167	-0.00083333	0.122
0.66	3.96	0	0.086	0.0031667	0.0016667	0.112
0.66	4.07	0	0.087	0.0015	-0.0071667	0.111
0.66	4.18	0	0.085	-0.0053333	-0.0061667	0.113
0.66	4.29	0	0.122	-0.0010833	0.0025833	0.121
0.66	4.4	0	0.086	0.0033333	0.0018333	0.118
0.66	4.51	0	0.088	0.0011667	-0.0021667	0.109
0.66	4.62	0	0.087	-0.0019167	0.0045833	0.111
0.66	4.73	0	0.093	-0.0015833	0.0028333	0.107
0.66	4.84	0	0.132	-0.00175	-0.0021667	0.103
0.66	4.95	0	0.131	0.0035	-0.0049167	0.105
0.66	5.06	0	0.09	0.013	-0.0088333	0.105
0.66	5.17	0	0.087	0.018333	-0.003	0.084
0.66	5.28	0	0.118	-0.012667	-0.0086667	0.068
0.66	5.39	0	0.084	-0.022167	-0.00125	0.104
0.66	5.5	0	0.084	0.0013333	0.0023333	0.115
0.66	5.61	0	0.076	0.0025	-0.00066667	0.105
0.66	5.72	0	0.084	0.00275	-0.0078333	0.094
0.66	5.83	0	0.082	-0.0030833	0.00091667	0.087
0.66	5.94	0	0.087	-0.0044167	0.0038333	0.101
0.66	6.05	0	0.084	0.0016667	0.0024167	0.11
0.66	6.16	0	0.084	0.00175	0.0043333	0.108
0.66	6.27	0	0.08	0.00066667	0.0084167	0.12
0.66	6.38	0	0.084	-0.0018333	0.0085833	0.115
0.66	6.49	0	0.087	-0.00175	0.0098333	0.116
0.66	6.6	0	0.094	8.3333e-05	0.0078333	0.127
0.66	6.71	0	0.122	0.00091667	0.0045	0.114
0.66	6.82	0	0.107	0.0031667	0.0048333	0.1
0.66	6.93	0	0.077	0.0005	0.013083	0.096
0.66	7.04	0	0.101	-0.0068333	0.014083	0.098
0.66	7.15	0	0.111	-0.00375	0.010167	0.108
0.66	7.26	0	0.075	0.0050833	0.002	0.117
0.66	7.37	0	0.097	0.0048333	0.0053333	0.117
0.66	7.48	0	0.097	0.0035	0.00425	0.105
0.66	7.59	0	0.1	-0.0024167	0.0074167	0.106
0.66	7.7	0	0.099	-0.0005	-0.0014167	0.103
0.66	7.81	0	0.104	0.00041667	-1.1565e-18	0.102
0.66	7.92	0	0.095	0.0018333	-0.0050833	0.101
0.66	8.03	0	0.104	0.0048333	0.019	0.095
0.66	8.14	0	0.066	0.0055	0.06675	0.098
0.66	8.25	0	0.09	0.003	0.033667	0.096
0.66	8.36	0	0.091	-0.0043333	-0.0074167	0.104
0.66	8.47	0	0.106	-0.0005	-0.0058333	0.107
0.66	8.58	0	0.111	0.0028333	-0.016167	0.096
0.66	8.69	0	0.099	-0.00083333	-0.0083333	0.088
0.66	8.8	0	0.096	-0.00041667	-0.0066667	0.1
0.66	8.91	0	0.112	-0.0055833	-0.0068333	0.1
0.77	0	0	0.095	-0.0063333	-0.010333	0.071
0.77	0.11	0	0.061	8.3333e-05	-0.0043333	0.072
0.77	0.22	0	0.104	-0.0036667	-0.0036667	0.064
0.77	0.33	0	0.108	-0.00275	0.00225	0.081
0.77	0.44	0	0.105	0.00775	0.00025	0.084
0.77	0.55	0	0.111	0.053083	-0.00275	0.07
0.77	0.66	0	0.1	0.054167	-0.0016667	0.004
0.77	0.77	0	0.1	-0.047333	-0.0088333	-0.019
0.77	0.88	0	0.081	-0.0465	-0.018	0.086
0.77	0.99	0	0.109	-0.019083	-0.012917	0.082
0.77	1.1	0	0.111	-0.018333	-0.01425	0.134
0.77	1.21	0	0.097	0.012	-0.015917	0.111
0.77	1.32	0	0.106	0.0035	-0.010333	0.069
0.77	1.43	0	0.111	0.003	-0.015083	0.073
0.77	1.54	0	0.12	0	-0.017	0.104
0.77	1.65	0	0.114	0	-0.015333	0.105
0.77	1.76	0	0.109	0.00058333	-0.013	0.085
0.77	1.87	0	0.105	0.0005	-0.0115	0.086
0.77	1.98	0	0.107	0.00041667	-0.0085833	0.096
0.77	2.09	0	0.101	0.00066667	-0.0036667	0.1
0.77	2.2	0	0.104	0.0048333	0.00075	0.109
0.77	2.31	0	0.196	-0.00225	0.0038333	0.102
0.77	2.42	0	0.104	-0.00725	0.00025	0.112
0.77	2.53	0	0.13	-0.0019167	-0.0053333	0.114
0.77	2.64	0	0.103	-0.003	-0.008	0.107
0.77	2.75	0	0.099	0.0010833	-0.005	0.119
0.77	2.86	0	0.095	0.00025	0.0070833	0.111
0.77	2.97	0	0.084	-0.00375	0.0038333	0.108
0.77	3.08	0	0.092	0.00825	0.0069167	0.081
0.77	3.19	0	0.085	0.0055833	0.0075833	0.054
0.77	3.3	0	0.096	-0.0063333	0.008	0.09
0.77	3.41	0	0.084	0.0021667	0.0031667	0.11
0.77	3.52	0	0.093	0.0034167	-0.006	0.107
0.77	3.63	0	0.102	0.00175	-0.013583	0.113
0.77	3.74	0	0.093	0.0029167	-0.010833	0.119
0.77	3.85	0	0.097	0.00091667	-0.0041667	0.128
0.77	3.96	0	0.112	-0.0051667	-0.0049167	0.117
0.77	4.07	0	0.105	-0.0016667	-0.0023333	0.119
0.77	4.18	0	0.1	0.0030833	0.0030833	0.115
0.77	4.29	0	0.095	-0.0018333	-0.006	0.112
0.77	4.4	0	0.094	0.0011667	-0.0061667	0.119
0.77	4.51	0	0.08	0.0025	-0.0025833	0.11
0.77	4.62	0	0.092	-0.00025	0.00091667	0.113
0.77	4.73	0	0.086	-0.0015833	-0.00125	0.111
0.77	4.84	0	0.092	0.006	0.0033333	0.107
0.77	4.95	0	0.091	0.012	0.0070833	0.092
0.77	5.06	0	0.093	-0.011583	0.00083333	0.086
0.77	5.17	0	0.088	-0.018667	-0.0045833	0.122
0.77	5.28	0	0.093	0.004	-0.010083	0.125
0.77	5.39	0	0.09	0.0035833	-0.0061667	0.112
0.77	5.5	0	0.088	0.00016667	0.0055833	0.117
0.77	5.61	0	0.09	0.00525	0.021833	0.104
0.77	5.72	0	0.087	-0.00091667	0.012167	0.1
0.77	5.83	0	0.088	-0.0034167	-0.0010833	0.115
0.77	5.94	0	0.087	0.0016667	-0.0075833	0.116
0.77	6.05	0	0.089	0.00083333	-0.0045833	0.112
0.77	6.16	0	0.088	-0.0029167	0.0011667	0.117
0.77	6.27	0	0.089	0.0014167	-0.00016667	0.118
0.77	6.38	0	0.086	0.00225	-0.00083333	0.111
0.77	6.49	0	0.086	-0.0035833	0.0064167	0.114
0.77	6.6	0	0.113	0.00041667	0.0063333	0.11
0.77	6.71	0	0.089	0.0010833	0.00775	0.106
0.77	6.82	0	0.092	-0.0078333	0.0029167	0.105
0.77	6.93	0	0.115	-0.0068333	-0.01025	0.117
0.77	7.04	0	0.088	0.0093333	-0.0195	0.125
0.77	7.15	0	0.088	0.01075	0.0061667	0.116
0.77	7.26	0	0.082	-0.00041667	-0.00041667	0.11
0.77	7.37	0	0.074	-0.0084167	-0.00175	0.121
0.77	7.48	0	0.083	-0.0021667	-0.0056667	0.111
0.77	7.59	0	0.084	0.00975	-0.0058333	0.105
0.77	7.7	0	0.086	0.00275	0.0019167	0.094
0.77	7.81	0	0.083	-0.0013333	0.0026667	0.1
0.77	7.92	0	0.084	0.0060833	0.016083	0.103
0.77	8.03	0	0.076	0.004	0.02325	0.106
0.77	8.14	0	0.109	-0.0015833	0.0055	0.104
0.77	8.25	0	0.08	-0.0023333	-0.0011667	0.105
0.77	8.36	0	0.08	-0.00075	-0.0046667	0.103
0.77	8.47	0	0.06	-0.0018333	-0.0053333	0.107
0.77	8.58	0	0.084	-0.00033333	-0.010917	0.104
0.77	8.69	0	0.061	0.0043333	-0.010917	0.104
0.77	8.8	0	0.073	0.003	-0.0060833	0.093
0.77	8.91	0	0.058	-0.0065833	0.0024167	0.097
0.88	0	0	0.071	-0.0075	0.0013333	0.076
0.88	0.11	0	0.106	-0.00083333	-0.0019167	0.079
0.88	0.22	0	0.111	-0.00025	0.0011667	0.066
0.88	0.33	0	0.11	-0.00125	-0.0013333	0.067
0.88	0.44	0	0.1	-1.1565e-18	0.0028333	0.073
0.88	0.55	0	0.089	-0.0010833	-0.0026667	0.065
0.88	0.66	0	0.095	0.011167	-8.3333e-05	0.07
0.88	0.77	0	0.053	0.060333	-0.0066667	0.048
0.88	0.88	0	0.085	0.010667	-0.01275	-0.009
0.88	0.99	0	0.111	-0.066	-0.016333	0.043
0.88	1.1	0	0.095	-0.02675	-0.010083	0.111
0.88	1.21	0	0.099	-0.0049167	-0.0095833	0.121
0.88	1.32	0	0.104	-0.0038333	-0.01225	0.135
0.88	1.43	0	0.11	0.0084167	-0.0115	0.113
0.88	1.54	0	0.064	0.00475	-0.0094167	0.06
0.88	1.65	0	0.103	0.00033333	-0.0088333	0.064
0.88	1.76	0	0.095	0.0015833	-0.0014167	0.106
0.88	1.87	0	0.099	0.0010833	-0.003	0.094
0.88	1.98	0	0.096	0.0045	0.006	0.099
0.88	2.09	0	0.091	0.0041667	0.011083	0.073
0.88	2.2	0	0.1	-0.0023333	0.0040833	0.095
0.88	2.31	0	0.073	0.00325	-0.005	0.094
0.88	2.42	0	0.106	0.0023333	-0.054	0.098
0.88	2.53	0	0.1	-0.0050833	-0.06425	0.097
0.88	2.64	0	0.093	-0.00825	-0.0075833	0.081
0.88	2.75	0	0.112	-0.00175	-0.00925	0.094
0.88	2.86	0	0.108	0.002	0.017833	0.1
0.88	2.97	0	0.11	0.0029167	0.00975	0.108
0.88	3.08	0	0.107	-0.003	0.0016667	0.107
0.88	3.19	0	0.119	-0.01	-0.002	0.094
0.88	3.3	0	0.125	-0.001	-0.0049167	0.044
0.88	3.41	0	0.112	-0.0025	-0.00875	0.029
0.88	3.52	0	0.109	-0.0010833	-0.005	0.091
0.88	3.63	0	0.108	0.00083333	-0.0018333	0.11
0.88	3.74	0	0.102	0.0041667	-0.00058333	0.123
0.88	3.85	0	0.103	0.0065	0.0025	0.116
0.88	3.96	0	0.11	0.00575	0.00125	0.116
0.88	4.07	0	0.208	-0.00066667	-0.00425	0.106
0.88	4.18	0	0.134	-0.0068333	8.3333e-05	0.113
0.88	4.29	0	0.14	0.002	0.002	0.12
0.88	4.4	0	0.106	0.00675	0.0025833	0.116
0.88	4.51	0	0.108	-0.0029167	0.0040833	0.103
0.88	4.62	0	0.089	-0.00475	0.0019167	0.118
0.88	4.73	0	0.079	0.0038333	0.00375	0.116
0.88	4.84	0	0.093	0.00075	0.0029167	0.107
0.88	4.95	0	0.078	-0.0035833	-0.00375	0.111
0.88	5.06	0	0.091	-0.0025833	-0.0026667	0.111
0.88	5.17	0	0.081	-0.0056667	-0.0050833	0.111
0.88	5.28	0	0.09	-0.0083333	-0.005	0.124
0.88	5.39	0	0.089	-0.00058333	0.00925	0.124
0.88	5.5	0	0.091	0.0084167	0.02125	0.118
0.88	5.61	0	0.091	0.00125	-0.0011667	0.114
0.88	5.72	0	0.134	0.001	-0.010667	0.117
0.88	5.83	0	0.097	0.0099167	-0.0044167	0.104
0.88	5.94	0	0.098	0.0025	-0.0055	0.099
0.88	6.05	0	0.096	-0.0039167	-0.00475	0.105
0.88	6.16	0	0.093	-0.0031667	-0.0061667	0.12
0.88	6.27	0	0.044	-0.0021667	0.00025	0.126
0.88	6.38	0	0.094	-0.00058333	0.00041667	0.132
0.88	6.49	0	0.055	0.0065833	0.0021667	0.124
0.88	6.6	0	0.089	0.0059167	0.00016667	0.106
0.88	6.71	0	0.091	-0.0069167	-0.0060833	0.109
0.88	6.82	0	0.09	-0.003	-0.0089167	0.131